                  Welcome to Q-Chem
     A Quantum Leap Into The Future Of Chemistry


 Q-Chem 5.2 (devel), Q-Chem, Inc., Pleasanton, CA (2019)

 Yihan Shao,  Zhengting Gan,  E. Epifanovsky,  A. T. B. Gilbert,  M. Wormit,  
 J. Kussmann,  A. W. Lange,  A. Behn,  Jia Deng,  Xintian Feng,  D. Ghosh,  
 M. Goldey,  P. R. Horn,  L. D. Jacobson,  I. Kaliman,  T. Kus,  A. Landau,  
 Jie Liu,  E. I. Proynov,  R. M. Richard,  R. P. Steele,  E. J. Sundstrom,  
 H. L. Woodcock III,  P. M. Zimmerman,  D. Zuev,  B. Albrecht,  E. Alguire,  
 S. A. Baeppler,  D. Barton,  Z. Benda,  Y. A. Bernard,  E. J. Berquist,  
 K. B. Bravaya,  H. Burton,  D. Casanova,  Chun-Min Chang,  Yunqing Chen,  
 A. Chien,  K. D. Closser,  M. P. Coons,  S. Coriani,  S. Dasgupta,  
 A. L. Dempwolff,  M. Diedenhofen,  Hainam Do,  R. G. Edgar,  Po-Tung Fang,  
 S. Faraji,  S. Fatehi,  Qingguo Feng,  K. D. Fenk,  J. Fosso-Tande,  
 J. Gayvert,  Qinghui Ge,  A. Ghysels,  G. Gidofalvi,  J. Gomes,  
 J. Gonthier,  A. Gunina,  D. Hait,  M. W. D. Hanson-Heine,  
 P. H. P. Harbach,  A. W. Hauser,  M. F. Herbst,  J. E. Herr,  
 E. G. Hohenstein,  Z. C. Holden,  Kerwin Hui,  B. C. Huynh,  T.-C. Jagau,  
 Hyunjun Ji,  B. Kaduk,  K. Khistyaev,  Jaehoon Kim,  P. Klunzinger,  K. Koh,  
 D. Kosenkov,  L. Koulias,  T. Kowalczyk,  C. M. Krauter,  A. Kunitsa,  
 Ka Un Lao,  A. Laurent,  K. V. Lawler,  Joonho Lee,  D. Lefrancois,  
 S. Lehtola,  D. S. Levine,  Yi-Pei Li,  You-Sheng Lin,  Fenglai Liu,  
 E. Livshits,  A. Luenser,  P. Manohar,  E. Mansoor,  S. F. Manzer,  
 Shan-Ping Mao,  Yuezhi Mao,  N. Mardirossian,  A. V. Marenich,  
 T. Markovich,  L. A. Martinez-Martinez,  S. A. Maurer,  N. J. Mayhall,  
 S. C. McKenzie,  J.-M. Mewes,  P. Morgante,  A. F. Morrison,  
 J. W. Mullinax,  K. Nanda,  T. S. Nguyen-Beck,  R. Olivares-Amaya,  
 J. A. Parkhill,  Zheng Pei,  T. M. Perrine,  F. Plasser,  P. Pokhilko,  
 S. Prager,  A. Prociuk,  E. Ramos,  D. R. Rehn,  F. Rob,  M. Scheurer,  
 M. Schneider,  N. Sergueev,  S. M. Sharada,  S. Sharma,  D. W. Small,  
 T. Stauch,  T. Stein,  Yu-Chuan Su,  A. J. W. Thom,  A. Tkatchenko,  
 T. Tsuchimochi,  N. M. Tubman,  L. Vogt,  M. L. Vidal,  O. Vydrov,  
 M. A. Watson,  J. Wenzel,  M. de Wergifosse,  T. A. Wesolowski,  A. White,  
 J. Witte,  A. Yamada,  Jun Yang,  K. Yao,  S. Yeganeh,  S. R. Yost,  
 Zhi-Qiang You,  A. Zech,  Igor Ying Zhang,  Xing Zhang,  Yan Zhao,  
 Ying Zhu,  B. R. Brooks,  G. K. L. Chan,  C. J. Cramer,  M. S. Gordon,  
 W. J. Hehre,  A. Klamt,  M. W. Schmidt,  C. D. Sherrill,  D. G. Truhlar,  
 A. Aspuru-Guzik,  R. Baer,  A. T. Bell,  N. A. Besley,  Jeng-Da Chai,  
 A. E. DePrince, III,  R. A. DiStasio Jr.,  A. Dreuw,  B. D. Dunietz,  
 T. R. Furlani,  Chao-Ping Hsu,  Yousung Jung,  Jing Kong,  D. S. Lambrecht,  
 WanZhen Liang,  C. Ochsenfeld,  V. A. Rassolov,  L. V. Slipchenko,  
 J. E. Subotnik,  T. Van Voorhis,  J. M. Herbert,  A. I. Krylov,  
 P. M. W. Gill,  M. Head-Gordon

 Contributors to earlier versions of Q-Chem not listed above: 
 R. D. Adamson,  B. Austin,  J. Baker,  G. J. O. Beran,  K. Brandhorst,  
 S. T. Brown,  E. F. C. Byrd,  A. K. Chakraborty,  C.-L. Cheng,  
 Siu Hung Chien,  D. M. Chipman,  D. L. Crittenden,  H. Dachsel,  
 R. J. Doerksen,  A. D. Dutoi,  L. Fusti-Molnar,  W. A. Goddard III,  
 A. Golubeva-Zadorozhnaya,  S. R. Gwaltney,  G. Hawkins,  A. Heyden,  
 S. Hirata,  G. Kedziora,  F. J. Keil,  C. Kelley,  Jihan Kim,  R. A. King,  
 R. Z. Khaliullin,  P. P. Korambath,  W. Kurlancheek,  A. M. Lee,  M. S. Lee,  
 S. V. Levchenko,  Ching Yeh Lin,  D. Liotard,  R. C. Lochan,  I. Lotan,  
 P. E. Maslen,  N. Nair,  D. P. O'Neill,  D. Neuhauser,  E. Neuscamman,  
 C. M. Oana,  R. Olson,  B. Peters,  R. Peverati,  P. A. Pieniazek,  
 Y. M. Rhee,  J. Ritchie,  M. A. Rohrdanz,  E. Rosta,  N. J. Russ,  
 H. F. Schaefer III,  N. E. Schultz,  N. Shenvi,  A. C. Simmonett,  A. Sodt,  
 D. Stuck,  K. S. Thanthiriwatte,  V. Vanovschi,  Tao Wang,  A. Warshel,  
 C. F. Williams,  Q. Wu,  X. Xu,  W. Zhang

 Please cite Q-Chem as follows:
 Y. Shao et al., Mol. Phys. 113, 184-215 (2015)
 DOI: 10.1080/00268976.2014.952696

 Q-Chem 5.2.0 for Intel X86 EM64T Linux

 Parts of Q-Chem use Armadillo 8.300.2 (Tropical Shenanigans).
 http://arma.sourceforge.net/

 Q-Chem begins on Tue Jul 30 00:22:26 2019  

Host: chesterian
0

     Scratch files written to /scratch/cbh31/QCHEM/qchem44182//
NAlpha2: 2
NElect   2
Mult     1

 Q-Chem warning in module libgen/rem_setup.C, line 2166:

 Setting Thresh to 1e-14


Checking the input file for inconsistencies... 	...done.

--------------------------------------------------------------
User input:
--------------------------------------------------------------
$molecule
0 1
    He  0   0   0
$end
$rem
    BASIS 6-31G*
    EXCHANGE hf
    CORRELATION none
    UNRESTRICTED false
    SCF_GUESS CORE
    SCF_ALGORITHM DIIS
    SCF_CONVERGENCE 13
    SCF_MAX_CYCLES 1000
    MOM_START 1
    SCF_PRINT 1
    PRINT_ORBITALS true
    PRINT_GENERAL_BASIS true
$end
--------------------------------------------------------------
 ----------------------------------------------------------------
             Standard Nuclear Orientation (Angstroms)
    I     Atom           X                Y                Z
 ----------------------------------------------------------------
    1      He      0.0000000000     0.0000000000     0.0000000000
 ----------------------------------------------------------------
 Molecular Point Group                 Kh    NOp =***
 Largest Abelian Subgroup              D2h   NOp =  1
 Nuclear Repulsion Energy =           0.00000000 hartrees
 There are        1 alpha and        1 beta electrons
 Requested basis set is 6-31G(d)
Basis set in general basis input format:
-----------------------------------------------------------------------
$basis
He   0
S    3    1.000000
   3.84216340E+01    2.37660000E-02 
   5.77803000E+00    1.54679000E-01 
   1.24177400E+00    4.69630000E-01 
S    1    1.000000
   2.97964000E-01    1.00000000E+00 
****
$end
-----------------------------------------------------------------------
 There are 2 shells and 2 basis functions

 Total QAlloc Memory Limit   2000 MB
 Mega-Array Size       188 MB
 MEM_STATIC part       192 MB
 A cutoff of  1.0D-16 yielded      3 shell pairs
 There are         3 function pairs
 Smallest overlap matrix eigenvalue = 3.66E-01

 Scale SEOQF with 1.000000e+00/1.000000e+00/1.000000e+00

 Standard Electronic Orientation quadrupole field applied
 Guess MOs from core Hamiltonian diagonalization

 -----------------------------------------------------------------------
  General SCF calculation program by
  Eric Jon Sundstrom, Paul Horn, Yuezhi Mao, Dmitri Zuev, Alec White,
  David Stuck, Shaama M.S., Shane Yost, Joonho Lee, David Small,
  Daniel Levine, Susi Lehtola, Hugh Burton, Evgeny Epifanovsky,
  Bang C. Huynh
 -----------------------------------------------------------------------
 Hartree-Fock
 using 6 threads for integral computing
 -------------------------------------------------------
 OpenMP Integral computing Module                
 Release: version 2.0, May 2017, Q-Chem Inc. Pleasanton 
 -------------------------------------------------------
 HF Exchange   Energy =  -1.24532874808654
 One-Electron  Energy =  -3.98723555157282
 Total Coulomb Energy =   2.49065749617308
 Nuclear repulsion Energy =   0.00000000000000
 A restricted SCF calculation will be
 performed using DIIS
 SCF converges when DIIS error is below 1.0e-13
 HF Exchange   Energy =  -1.24532874808654
 One-Electron  Energy =  -3.98723555157282
 Total Coulomb Energy =   2.49065749617308
 ---------------------------------------
  Cycle       Energy         DIIS error
 ---------------------------------------
Maximum Overlap Method Active
 MOM overlap:    0.98855970130855 / 1
 HF Exchange   Energy =  -1.04376027806016
 One-Electron  Energy =  -3.89817200603411
 Total Coulomb Energy =   2.08752055612032
 Nuclear repulsion Energy =   0.00000000000000
    1      -2.7419068035      4.77e-01  
 HF Exchange   Energy =  -1.04376027806016
 One-Electron  Energy =  -3.89817200603411
 Total Coulomb Energy =   2.08752055612032
Maximum Overlap Method Active
 MOM overlap:    0.99991128375858 / 1
 HF Exchange   Energy =  -1.02679922290386
 One-Electron  Energy =  -3.88195961795401
 Total Coulomb Energy =   2.05359844580772
 Nuclear repulsion Energy =   0.00000000000000
    2      -2.8544117280      4.00e-02  
 HF Exchange   Energy =  -1.02679922290386
 One-Electron  Energy =  -3.88195961795401
 Total Coulomb Energy =   2.05359844580772
Maximum Overlap Method Active
 MOM overlap:    0.99999999646350 / 1
 HF Exchange   Energy =  -1.02690568751563
 One-Electron  Energy =  -3.88206611366422
 Total Coulomb Energy =   2.05381137503126
 Nuclear repulsion Energy =   0.00000000000000
    3      -2.8551603951      2.58e-04  
 HF Exchange   Energy =  -1.02690568751563
 One-Electron  Energy =  -3.88206611366422
 Total Coulomb Energy =   2.05381137503126
Maximum Overlap Method Active
 MOM overlap:    0.99999999999953 / 1
 HF Exchange   Energy =  -1.02690691637660
 One-Electron  Energy =  -3.88206734253087
 Total Coulomb Energy =   2.05381383275319
 Nuclear repulsion Energy =   0.00000000000000
    4      -2.8551604261      3.54e-06  
 HF Exchange   Energy =  -1.02690691637660
 One-Electron  Energy =  -3.88206734253087
 Total Coulomb Energy =   2.05381383275319
Maximum Overlap Method Active
 MOM overlap:    0.99999999999998 / 1
 HF Exchange   Energy =  -1.02690716962921
 One-Electron  Energy =  -3.88206759578366
 Total Coulomb Energy =   2.05381433925842
 Nuclear repulsion Energy =   0.00000000000000
    5      -2.8551604262      6.03e-07  
 HF Exchange   Energy =  -1.02690716962921
 One-Electron  Energy =  -3.88206759578366
 Total Coulomb Energy =   2.05381433925842
Maximum Overlap Method Active
 MOM overlap:    1.00000000000000 / 1
 HF Exchange   Energy =  -1.02690716887243
 One-Electron  Energy =  -3.88206759502688
 Total Coulomb Energy =   2.05381433774486
 Nuclear repulsion Energy =   0.00000000000000
    6      -2.8551604262      1.80e-09  
 HF Exchange   Energy =  -1.02690716887243
 One-Electron  Energy =  -3.88206759502688
 Total Coulomb Energy =   2.05381433774486
Maximum Overlap Method Active
 MOM overlap:    1.00000000000000 / 1
 HF Exchange   Energy =  -1.02690716887636
 One-Electron  Energy =  -3.88206759503081
 Total Coulomb Energy =   2.05381433775272
 Nuclear repulsion Energy =   0.00000000000000
    7      -2.8551604262      9.56e-12  
 HF Exchange   Energy =  -1.02690716887636
 One-Electron  Energy =  -3.88206759503081
 Total Coulomb Energy =   2.05381433775272
Maximum Overlap Method Active
 MOM overlap:    1.00000000000000 / 1
 HF Exchange   Energy =  -1.02690716887643
 One-Electron  Energy =  -3.88206759503088
 Total Coulomb Energy =   2.05381433775287
 Nuclear repulsion Energy =   0.00000000000000
    8      -2.8551604262      1.77e-13  
 HF Exchange   Energy =  -1.02690716887643
 One-Electron  Energy =  -3.88206759503088
 Total Coulomb Energy =   2.05381433775287
    9      -2.8551604262      0.00e+00  Convergence criterion met
Maximum Overlap Method Active
 MOM overlap:    1.00 / 1
Maximum Overlap Method Active
 MOM overlap:    1.00 / 1
 ---------------------------------------
 SCF time:   CPU 4.20s  wall 1.00s 
 HF Exchange   Energy =  -1.02690716887643
 One-Electron  Energy =  -3.88206759503088
 Total Coulomb Energy =   2.05381433775287
 Nuclear repulsion Energy =   0.00000000000000
 SCF   energy in the final basis set =       -2.8551604262
 Total energy in the final basis set =       -2.8551604262
 
 --------------------------------------------------------------
 
                    Orbital Energies (a.u.)
 --------------------------------------------------------------
 
 Alpha MOs
 -- Occupied --
 -0.9141
 -- Virtual --
  1.3999
 --------------------------------------------------------------
 

                        RESTRICTED (RHF) MOLECULAR ORBITAL COEFFICIENTS
                         1         2
 eigenvalues:         -0.914     1.400
   1  He    s       -0.59208  -1.14982
   2  He    s       -0.51359   1.18696
 
          Ground-State Mulliken Net Atomic Charges

     Atom                 Charge (a.u.)
  ----------------------------------------
      1 He                    0.000000
  ----------------------------------------
  Sum of atomic charges =     0.000000

 -----------------------------------------------------------------
                    Cartesian Multipole Moments
 -----------------------------------------------------------------
    Charge (ESU x 10^10)
                 0.0000
    Dipole Moment (Debye)
         X       0.0000      Y       0.0000      Z       0.0000
       Tot       0.0000
    Quadrupole Moments (Debye-Ang)
        XX      -1.0424     XY       0.0000     YY      -1.0424
        XZ       0.0000     YZ       0.0000     ZZ      -1.0424
    Octopole Moments (Debye-Ang^2)
       XXX       0.0000    XXY       0.0000    XYY       0.0000
       YYY       0.0000    XXZ       0.0000    XYZ       0.0000
       YYZ       0.0000    XZZ       0.0000    YZZ       0.0000
       ZZZ       0.0000
    Hexadecapole Moments (Debye-Ang^3)
      XXXX      -0.5225   XXXY       0.0000   XXYY      -0.1742
      XYYY       0.0000   YYYY      -0.5225   XXXZ       0.0000
      XXYZ       0.0000   XYYZ       0.0000   YYYZ       0.0000
      XXZZ      -0.1742   XYZZ       0.0000   YYZZ      -0.1742
      XZZZ       0.0000   YZZZ       0.0000   ZZZZ      -0.5225
 -----------------------------------------------------------------

 STANDARD THERMODYNAMIC QUANTITIES AT   298.15 K  AND     1.00 ATM

   Translational Enthalpy:        0.889 kcal/mol
   Rotational Enthalpy:           0.000 kcal/mol
   Vibrational Enthalpy:          0.000 kcal/mol
   gas constant (RT):             0.592 kcal/mol
   Translational Entropy:        30.125  cal/mol.K
   Rotational Entropy:            0.000  cal/mol.K
   Vibrational Entropy:           0.000  cal/mol.K

   Total Enthalpy:                1.481 kcal/mol
   Total Entropy:                30.125  cal/mol.K

 -----------------------------------------------------------------

Archival summary:
1\1\chesterian\SP\HF\6-31G*\e1\cbh31\TueJul3000:22:272019TueJul3000:22:272019\0\\#,HF,6-31G*,\\0,1\He\\HF=-2.85516043\\@

 Total job time:  1.01s(wall), 5.76s(cpu) 
 Tue Jul 30 00:22:27 2019

        *************************************************************
        *                                                           *
        *  Thank you very much for using Q-Chem.  Have a nice day.  *
        *                                                           *
        *************************************************************


